# vtk DataFile Version 3.0
Triangulation generated with deal.II
ASCII
DATASET UNSTRUCTURED_GRID
POINTS 154 double
0.75 0 0
0.791667 0 0
0.833333 0 0
0.875 0 0
0.916667 0 0
0.958333 0 0
1 0 0
0.75 0.047619 0
0.791667 0.047619 0
0.833333 0.047619 0
0.875 0.047619 0
0.916667 0.047619 0
0.958333 0.047619 0
1 0.047619 0
0.75 0.0952381 0
0.791667 0.0952381 0
0.833333 0.0952381 0
0.875 0.0952381 0
0.916667 0.0952381 0
0.958333 0.0952381 0
1 0.0952381 0
0.75 0.142857 0
0.791667 0.142857 0
0.833333 0.142857 0
0.875 0.142857 0
0.916667 0.142857 0
0.958333 0.142857 0
1 0.142857 0
0.75 0.190476 0
0.791667 0.190476 0
0.833333 0.190476 0
0.875 0.190476 0
0.916667 0.190476 0
0.958333 0.190476 0
1 0.190476 0
0.75 0.238095 0
0.791667 0.238095 0
0.833333 0.238095 0
0.875 0.238095 0
0.916667 0.238095 0
0.958333 0.238095 0
1 0.238095 0
0.75 0.285714 0
0.791667 0.285714 0
0.833333 0.285714 0
0.875 0.285714 0
0.916667 0.285714 0
0.958333 0.285714 0
1 0.285714 0
0.75 0.333333 0
0.791667 0.333333 0
0.833333 0.333333 0
0.875 0.333333 0
0.916667 0.333333 0
0.958333 0.333333 0
1 0.333333 0
0.75 0.380952 0
0.791667 0.380952 0
0.833333 0.380952 0
0.875 0.380952 0
0.916667 0.380952 0
0.958333 0.380952 0
1 0.380952 0
0.75 0.428571 0
0.791667 0.428571 0
0.833333 0.428571 0
0.875 0.428571 0
0.916667 0.428571 0
0.958333 0.428571 0
1 0.428571 0
0.75 0.47619 0
0.791667 0.47619 0
0.833333 0.47619 0
0.875 0.47619 0
0.916667 0.47619 0
0.958333 0.47619 0
1 0.47619 0
0.75 0.52381 0
0.791667 0.52381 0
0.833333 0.52381 0
0.875 0.52381 0
0.916667 0.52381 0
0.958333 0.52381 0
1 0.52381 0
0.75 0.571429 0
0.791667 0.571429 0
0.833333 0.571429 0
0.875 0.571429 0
0.916667 0.571429 0
0.958333 0.571429 0
1 0.571429 0
0.75 0.619048 0
0.791667 0.619048 0
0.833333 0.619048 0
0.875 0.619048 0
0.916667 0.619048 0
0.958333 0.619048 0
1 0.619048 0
0.75 0.666667 0
0.791667 0.666667 0
0.833333 0.666667 0
0.875 0.666667 0
0.916667 0.666667 0
0.958333 0.666667 0
1 0.666667 0
0.75 0.714286 0
0.791667 0.714286 0
0.833333 0.714286 0
0.875 0.714286 0
0.916667 0.714286 0
0.958333 0.714286 0
1 0.714286 0
0.75 0.761905 0
0.791667 0.761905 0
0.833333 0.761905 0
0.875 0.761905 0
0.916667 0.761905 0
0.958333 0.761905 0
1 0.761905 0
0.75 0.809524 0
0.791667 0.809524 0
0.833333 0.809524 0
0.875 0.809524 0
0.916667 0.809524 0
0.958333 0.809524 0
1 0.809524 0
0.75 0.857143 0
0.791667 0.857143 0
0.833333 0.857143 0
0.875 0.857143 0
0.916667 0.857143 0
0.958333 0.857143 0
1 0.857143 0
0.75 0.904762 0
0.791667 0.904762 0
0.833333 0.904762 0
0.875 0.904762 0
0.916667 0.904762 0
0.958333 0.904762 0
1 0.904762 0
0.75 0.952381 0
0.791667 0.952381 0
0.833333 0.952381 0
0.875 0.952381 0
0.916667 0.952381 0
0.958333 0.952381 0
1 0.952381 0
0.75 1 0
0.791667 1 0
0.833333 1 0
0.875 1 0
0.916667 1 0
0.958333 1 0
1 1 0

CELLS 159 729
4 0 1 8 7
4 1 2 9 8
4 2 3 10 9
4 3 4 11 10
4 4 5 12 11
4 5 6 13 12
4 7 8 15 14
4 8 9 16 15
4 9 10 17 16
4 10 11 18 17
4 11 12 19 18
4 12 13 20 19
4 14 15 22 21
4 15 16 23 22
4 16 17 24 23
4 17 18 25 24
4 18 19 26 25
4 19 20 27 26
4 21 22 29 28
4 22 23 30 29
4 23 24 31 30
4 24 25 32 31
4 25 26 33 32
4 26 27 34 33
4 28 29 36 35
4 29 30 37 36
4 30 31 38 37
4 31 32 39 38
4 32 33 40 39
4 33 34 41 40
4 35 36 43 42
4 36 37 44 43
4 37 38 45 44
4 38 39 46 45
4 39 40 47 46
4 40 41 48 47
4 42 43 50 49
4 43 44 51 50
4 44 45 52 51
4 45 46 53 52
4 46 47 54 53
4 47 48 55 54
4 49 50 57 56
4 50 51 58 57
4 51 52 59 58
4 52 53 60 59
4 53 54 61 60
4 54 55 62 61
4 56 57 64 63
4 57 58 65 64
4 58 59 66 65
4 59 60 67 66
4 60 61 68 67
4 61 62 69 68
4 63 64 71 70
4 64 65 72 71
4 65 66 73 72
4 66 67 74 73
4 67 68 75 74
4 68 69 76 75
4 70 71 78 77
4 71 72 79 78
4 72 73 80 79
4 73 74 81 80
4 74 75 82 81
4 75 76 83 82
4 77 78 85 84
4 78 79 86 85
4 79 80 87 86
4 80 81 88 87
4 81 82 89 88
4 82 83 90 89
4 84 85 92 91
4 85 86 93 92
4 86 87 94 93
4 87 88 95 94
4 88 89 96 95
4 89 90 97 96
4 91 92 99 98
4 92 93 100 99
4 93 94 101 100
4 94 95 102 101
4 95 96 103 102
4 96 97 104 103
4 98 99 106 105
4 99 100 107 106
4 100 101 108 107
4 101 102 109 108
4 102 103 110 109
4 103 104 111 110
4 105 106 113 112
4 106 107 114 113
4 107 108 115 114
4 108 109 116 115
4 109 110 117 116
4 110 111 118 117
4 112 113 120 119
4 113 114 121 120
4 114 115 122 121
4 115 116 123 122
4 116 117 124 123
4 117 118 125 124
4 119 120 127 126
4 120 121 128 127
4 121 122 129 128
4 122 123 130 129
4 123 124 131 130
4 124 125 132 131
4 126 127 134 133
4 127 128 135 134
4 128 129 136 135
4 129 130 137 136
4 130 131 138 137
4 131 132 139 138
4 133 134 141 140
4 134 135 142 141
4 135 136 143 142
4 136 137 144 143
4 137 138 145 144
4 138 139 146 145
4 140 141 148 147
4 141 142 149 148
4 142 143 150 149
4 143 144 151 150
4 144 145 152 151
4 145 146 153 152
2 0 1
2 1 2
2 2 3
2 3 4
2 4 5
2 5 6
2 6 13
2 13 20
2 20 27
2 27 34
2 34 41
2 41 48
2 48 55
2 55 62
2 62 69
2 69 76
2 76 83
2 83 90
2 90 97
2 97 104
2 104 111
2 111 118
2 118 125
2 125 132
2 132 139
2 139 146
2 146 153
2 147 148
2 148 149
2 149 150
2 150 151
2 151 152
2 152 153

CELL_TYPES 159
9 9 9 9 9 9 9 9 9 9 9 9 9 9 9 9 9 9 9 9 9 9 9 9 9 9 9 9 9 9 9 9 9 9 9 9 9 9 9 9 9 9 9 9 9 9 9 9 9 9 9 9 9 9 9 9 9 9 9 9 9 9 9 9 9 9 9 9 9 9 9 9 9 9 9 9 9 9 9 9 9 9 9 9 9 9 9 9 9 9 9 9 9 9 9 9 9 9 9 9 9 9 9 9 9 9 9 9 9 9 9 9 9 9 9 9 9 9 9 9 9 9 9 9 9 9 
3 3 3 3 3 3 3 3 3 3 3 3 3 3 3 3 3 3 3 3 3 3 3 3 3 3 3 3 3 3 3 3 3 


CELL_DATA 159
SCALARS MaterialID int 1
LOOKUP_TABLE default
3 3 3 3 3 3 3 3 3 3 3 3 3 3 3 3 3 3 3 3 3 3 3 3 3 3 3 3 3 3 3 3 3 3 3 3 3 3 3 3 3 3 3 3 3 3 3 3 3 3 3 3 3 3 3 3 3 3 3 3 3 3 3 3 3 3 3 3 3 3 3 3 3 3 3 3 3 3 3 3 3 3 3 3 3 3 3 3 3 3 3 3 3 3 3 3 3 3 3 3 3 3 3 3 3 3 3 3 3 3 3 3 3 3 3 3 3 3 3 3 3 3 3 3 3 3 
2 2 2 2 2 2 1 1 1 1 1 1 1 1 1 1 1 1 1 1 1 1 1 1 1 1 1 3 3 3 3 3 3 


SCALARS ManifoldID int 1
LOOKUP_TABLE default
-1 -1 -1 -1 -1 -1 -1 -1 -1 -1 -1 -1 -1 -1 -1 -1 -1 -1 -1 -1 -1 -1 -1 -1 -1 -1 -1 -1 -1 -1 -1 -1 -1 -1 -1 -1 -1 -1 -1 -1 -1 -1 -1 -1 -1 -1 -1 -1 -1 -1 -1 -1 -1 -1 -1 -1 -1 -1 -1 -1 -1 -1 -1 -1 -1 -1 -1 -1 -1 -1 -1 -1 -1 -1 -1 -1 -1 -1 -1 -1 -1 -1 -1 -1 -1 -1 -1 -1 -1 -1 -1 -1 -1 -1 -1 -1 -1 -1 -1 -1 -1 -1 -1 -1 -1 -1 -1 -1 -1 -1 -1 -1 -1 -1 -1 -1 -1 -1 -1 -1 -1 -1 -1 -1 -1 -1 
-1 -1 -1 -1 -1 -1 -1 -1 -1 -1 -1 -1 -1 -1 -1 -1 -1 -1 -1 -1 -1 -1 -1 -1 -1 -1 -1 -1 -1 -1 -1 -1 -1 

